# vtk DataFile Version 3.0
egg curvature
ASCII
DATASET POLYDATA

POINTS 10000 float
10.230488777160645 -6.242375373840332 4.741212844848633
-11.197425842285156 -2.1296277046203613 -0.03414953127503395
10.016207695007324 -3.1292884349823 5.777460098266602
10.313729286193848 1.8987441062927246 5.636815071105957
1.552067518234253 6.792386054992676 11.512897491455078
-2.2061195373535156 -22.589597702026367 4.889047622680664
-10.238550186157227 15.208305358886719 -2.5208349227905273
-3.511894702911377 -21.015766143798828 5.747894763946533
-9.988883018493652 17.053625106811523 -1.0733006000518799
10.01500129699707 13.107951164245605 1.8079087734222412
11.56127643585205 0.8598535060882568 -1.52604079246521
3.229755401611328 -1.7872077226638794 -11.323407173156738
3.575913429260254 -9.744784355163574 -10.549650192260742
-3.539119243621826 -18.046016693115234 -8.164718627929688
-2.2138490676879883 -3.604414463043213 11.359503746032715
-10.962423324584961 -5.351380825042725 -0.543555736541748
6.614870548248291 -20.228681564331055 -2.783088445663452
-8.533039093017578 -7.422307014465332 6.412882328033447
8.154643058776855 -11.462966918945312 6.649736404418945
3.4152603149414062 -16.50364875793457 8.444555282592773
-9.040952682495117 -3.586026430130005 -6.790902614593506
6.911329746246338 -16.800594329833984 -5.982970237731934
3.7979931831359863 21.345165252685547 -2.920463800430298
5.80003023147583 -12.497806549072266 8.485254287719727
5.938863277435303 -10.44720458984375 -9.184727668762207
3.6292953491210938 18.089649200439453 -7.265833854675293
1.4682997465133667 -0.9013213515281677 11.636981964111328
-8.056314468383789 -4.048903465270996 -8.035550117492676
10.23759651184082 1.7395129203796387 5.770804405212402
-0.48487764596939087 -3.395801067352295 11.592385292053223
8.24589729309082 4.593173027038574 8.294004440307617
7.258085250854492 -0.026059553027153015 -9.16969108581543
-2.0845606327056885 12.260892868041992 -10.7976655960083
9.772689819335938 5.264892578125 -6.036405563354492
-8.509437561035156 14.721062660217285 7.015814781188965
-8.185896873474121 -1.0975377559661865 7.957225799560547
-7.489788055419922 -19.187368392944336 2.1778111457824707
2.1920664310455322 12.440068244934082 -10.431387901306152
3.1345133781433105 -0.6463680863380432 11.302508354187012
-9.35195541381836 -12.930453300476074 2.5214357376098633
8.599714279174805 13.021526336669922 -5.413556098937988
-0.12296057492494583 23.086833953857422 -1.4254649877548218
6.993985176086426 18.03261947631836 4.25478458404541
-10.054298400878906 -1.4832744598388672 5.065338611602783
-1.325401782989502 2.142017126083374 -11.742453575134277
-11.170499801635742 10.38713264465332 0.055126696825027466
-10.720502853393555 -6.054091453552246 1.5918700695037842
-1.7712047100067139 -19.0411319732666 -8.194034576416016
-9.68436336517334 -12.620256423950195 1.531545639038086
-4.202571868896484 14.488252639770508 10.090081214904785
-0.9126383662223816 11.690032958984375 -11.01430892944336
11.056920051574707 -8.298372268676758 0.6324564814567566
11.351038932800293 -2.5455381870269775 2.373718500137329
11.285070419311523 5.463247299194336 2.3095929622650146
-4.526371479034424 9.880109786987305 10.457242965698242
-9.355559349060059 12.314382553100586 -5.867680549621582
-6.422728061676025 -6.0057878494262695 9.027113914489746
-8.316853523254395 13.695552825927734 -6.900837421417236
-0.6055302619934082 2.234405279159546 -11.818571090698242
-2.299454927444458 -1.0554678440093994 11.52931022644043
8.576578140258789 16.293182373046875 -2.313237190246582
-7.265433311462402 21.171791076660156 1.5330301523208618
10.944494247436523 -1.9979166984558105 4.018734931945801
-2.811007499694824 -23.51873016357422 -2.6219654083251953
8.770818710327148 7.606362342834473 7.3381242752075195
-5.644458770751953 3.1496729850769043 10.177627563476562
-10.934874534606934 13.506765365600586 0.9719423055648804
11.444283485412598 1.1125197410583496 -2.1782150268554688
11.584379196166992 -1.8432810306549072 1.0373560190200806
-3.8899965286254883 18.548114776611328 8.669535636901855
-10.843056678771973 -1.2889039516448975 2.83846116065979
-1.506505012512207 5.62861442565918 -11.563858032226562
-0.5128663182258606 -7.809003829956055 11.062728881835938
2.7165422439575195 -23.68549156188965 0.7828273773193359
9.153936386108398 -1.3931461572647095 -7.23330545425415
-3.79431414604187 2.869783639907837 11.149810791015625
-0.6190596222877502 16.15888214111328 10.133517265319824
3.206902265548706 20.193645477294922 -5.408544063568115
-8.214183807373047 -5.0086870193481445 7.419187545776367
-3.180574893951416 6.639003753662109 -11.13679027557373
0.5084143280982971 -22.78061294555664 4.996215343475342
-9.467384338378906 11.589041709899902 -5.8387956619262695
0.8688682317733765 -24.217344284057617 -0.4498959183692932
-9.863035202026367 9.311714172363281 -5.440967082977295
-5.226629257202148 -10.28762149810791 -9.68551254272461
-4.79143762588501 -0.1715897023677826 10.657474517822266
4.3989458084106445 11.998196601867676 9.966340065002441
-5.651730537414551 -11.986615180969238 8.238191604614258
0.3903435468673706 -24.351318359375 0.660753607749939
-9.238199234008789 15.646581649780273 5.594903945922852
-1.2998627424240112 -15.597686767578125 -9.89284610748291
-10.831340789794922 -0.7047755718231201 -3.123563766479492
-7.3243513107299805 -8.722395896911621 7.554781436920166
-5.237703323364258 22.435361862182617 1.871819019317627
8.769198417663574 -10.736968040466309 -6.249597549438477
-8.028820037841797 5.23143196105957 -8.224318504333496
9.82738208770752 13.967609405517578 0.9383165836334229
-4.1180620193481445 14.288238525390625 -9.746548652648926
-6.458663463592529 -18.2344913482666 -5.6148152351379395
-9.502166748046875 -14.287046432495117 -1.2262229919433594
11.461292266845703 3.731562614440918 -1.7180744409561157
-10.044425964355469 -6.625807762145996 -4.461513042449951
-5.18831729888916 -19.774595260620117 -5.817263603210449
5.187003135681152 -13.465608596801758 8.594650268554688
8.125505447387695 -4.060379981994629 -8.265216827392578
-6.514702796936035 -4.7243218421936035 9.166732788085938
7.700082302093506 -5.881824493408203 -8.472112655639648
-7.986355781555176 12.41265869140625 -7.636531829833984
6.286837577819824 4.491033554077148 9.91655445098877
-2.770516872406006 18.46435546875 -8.068170547485352
3.8141143321990967 13.362884521484375 -9.534160614013672
11.511062622070312 -0.6508551239967346 2.069133758544922
5.120293617248535 -1.3409192562103271 -10.544326782226562
-7.057182312011719 -14.412019729614258 -7.033047199249268
-9.590208053588867 2.480949878692627 -6.167863845825195
11.245586395263672 7.408314228057861 -0.6900210380554199
-4.591186046600342 5.065814018249512 -10.699371337890625
-0.3193339705467224 10.832168579101562 11.263101577758789
0.8531849384307861 -4.979987621307373 -11.644270896911621
-10.645181655883789 1.1388318538665771 3.7470130920410156
-2.8580524921417236 -19.817089080810547 -7.324732780456543
2.4601917266845703 -19.700702667236328 7.206234931945801
-5.04986047744751 0.9414399862289429 10.547889709472656
-11.269389152526855 3.576225757598877 0.46067363023757935
4.485804557800293 9.250207901000977 10.450529098510742
-10.802660942077637 10.130524635314941 -2.8121330738067627
4.682384967803955 -19.293712615966797 -6.409883499145508
2.135633945465088 -22.65768051147461 -4.318109035491943
10.568222045898438 -11.551471710205078 -0.9577494859695435
-4.9576005935668945 22.546154022216797 1.918534755706787
-2.1142008304595947 1.4173413515090942 11.630410194396973
-2.450429916381836 4.164424896240234 -11.466730117797852
0.014549367129802704 -17.657451629638672 -9.115114212036133
9.026774406433105 -7.792749404907227 -6.618340492248535
-11.124032974243164 7.7468671798706055 1.4644989967346191
-4.394560813903809 4.968430519104004 -10.787002563476562
3.5512073040008545 15.533548355102539 -8.86833667755127
8.495616912841797 -1.096218228340149 -8.024195671081543
-1.834240198135376 23.0031681060791 -1.6945663690567017
9.570735931396484 -12.087759017944336 -4.248902320861816
5.600546836853027 -12.390926361083984 -9.012195587158203
3.5341835021972656 8.881694793701172 -10.604069709777832
-4.861858367919922 -21.72418785095215 -3.861762523651123
-10.974470138549805 7.547658443450928 -2.428926706314087
-5.976554870605469 3.1750741004943848 9.965802192687988
-1.475741982460022 -24.34592056274414 -0.28050288558006287
8.407751083374023 8.00688362121582 -7.362298011779785
9.597124099731445 -9.983806610107422 -5.0795817375183105
7.221408843994141 -3.34271502494812 -9.114664077758789
-4.994933128356934 -19.961301803588867 -5.836183547973633
-2.4257633686065674 -7.749495983123779 10.794512748718262
-4.441391468048096 -4.8533501625061035 10.470362663269043
-1.856818437576294 1.3745085000991821 -11.660244941711426
9.49540901184082 3.816459894180298 6.849719047546387
-5.230872631072998 2.120431900024414 10.459970474243164
10.882158279418945 0.6317939758300781 -4.221587181091309
-0.46233516931533813 -23.241779327392578 4.421596527099609
2.6407604217529297 22.63365936279297 0.9254324436187744
11.633054733276367 -0.9138267040252686 -0.6595507860183716
4.2030558586120605 -22.850299835205078 -1.271256923675537
11.013154983520508 8.612537384033203 -1.3765223026275635
2.6997463703155518 15.334004402160645 -9.342883110046387
-9.094844818115234 -13.20583724975586 3.0718650817871094
7.122922897338867 17.895462036132812 -3.6552412509918213
10.44841194152832 -0.6417133808135986 -5.146608352661133
-5.669510841369629 -5.004738807678223 -9.973501205444336
-4.894163608551025 -19.86629867553711 -6.020896911621094
-6.755423545837402 -12.943387985229492 6.907803535461426
6.911052227020264 -19.809356689453125 3.1836180686950684
-10.082723617553711 5.737857818603516 5.0347137451171875
-2.3161957263946533 -18.218170166015625 8.003707885742188
0.4885201156139374 22.483779907226562 -3.0057191848754883
8.400464057922363 7.049983024597168 7.865633010864258
9.026838302612305 -13.781174659729004 -4.51788854598999
[...]
POINT_DATA 10000
SCALARS curvature_K float
LOOKUP_TABLE default
0.0008203600957016385
0.0010692017768050054
0.0007111900930557236
0.0016371867369502882
5.8096388390065796e-05
0.017304422151675974
0.005439771451177059
0.0075302766357881485
0.006976120743779514
0.0037701625408691807
0.0006175477702311281
0.0004710356076226995
0.0014032309303159429
0.008028622897072039
0.0010329226290253857
0.0017560106370294462
0.008323280104550412
0.0008381724745706104
0.002511893942755782
0.004961859062958857
0.00010937132557268888
0.0058372612240336404
0.007036166516983299
0.0031972276836355483
0.0006509939354051645
0.0054620064982630655
0.0019333205480206173
0.0014096303101436745
0.0011063148950227256
0.0010672191649954497
0.0017138051107896894
0.001359121598149211
0.005348202321568587
0.0011788647549843836
0.011144624039298926
0.002406260818328089
0.007270535811369063
0.0022397353703651037
0.0007758628275620184
0.0014372382493920682
0.0035957014780692775
0.011250424753147728
0.006572524622996592
0.0012086710375191698
0.001720784578145955
0.00181391357195335
0.0013460056708613079
0.005946502674731866
0.001977969676526548
0.004841826339731442
0.0038283733005311698
0.001673870366566319
0.0016044630778697608
0.0015961271538979904
4.354115379261674e-05
0.0046087404069924485
0.001436503212429639
0.006225570065489924
-0.0002356365268282313
0.0012445157888025544
0.00593247630917273
0.012563058495804276
-0.0004565631875694238
0.013091408156869969
0.001261776095191245
0.0010495102997822904
0.004271534603200854
0.0003664022071876462
0.0006890830790153282
0.009070785808790258
0.001484132441530474
0.002405789855949325
0.002571715137918351
0.00651189418753095
0.0009619208179184111
0.0016336277037131074
0.007308531615710199
0.006076084459233173
0.001085266676583984
-0.0004188816750180191
0.01355580996025161
0.0034650696519560507
0.011525937204845866
0.0006085870547059096
0.0037625495331608944
0.0013422130000805097
0.002464805849162762
0.00011139082591574182
0.016623718118815703
0.005347677127578552
0.005873704221666065
0.002003220735072828
-8.215996495934379e-05
0.01036233960345486
0.0019961474453477407
0.000433066192128466
0.0036195921909691576
0.005735763848645119
0.00525424486596532
0.001169171156196728
0.0016893054632821172
0.0016195789287367858
0.009221702084969438
0.0028635871164573953
0.0021541172983930708
0.0023257966665910187
0.0006072136326664466
0.005162183654160522
0.001338841794204086
0.008395987844170593
0.0021850968171099995
0.0013537955938202708
0.0007318067749785724
0.001884545322824108
0.0009952097001261872
0.0009874424595605346
0.0005505770294189108
0.002134971357298946
0.0009859756776182348
0.0008129805377358242
0.005278378696415653
0.006929634981693669
0.0015177816918263082
0.0006031163746616637
0.001972018144582427
0.0007987275365325067
0.0070139974871220945
0.012949406156025986
0.002157414109451506
0.007955573271880867
0.0023258728380234016
-0.00028154674098278314
0.005160463550011033
0.0004605291163971403
-0.00033942781290289436
0.000696148439683195
0.006148325726432937
0.0011344606885722599
0.009680369776960632
0.002298040715504651
0.0028587269180434384
0.0016025912933336154
0.007109731455352732
-6.34100524667237e-05
0.0014293245049900069
0.021230551458436952
0.001725715171569619
0.0010504626973379162
0.0013594061151516693
0.01006977915712527
0.0018829801445654785
0.0020144923421057614
0.000933939448209683
0.0008939889623214854
0.0014159254531651026
0.001711975391850053
0.017925872964142654
0.012312262330945912
0.0005469162087235902
0.010515327495166323
0.0017670768312488196
0.005119552104712699
0.0018754326244924656
0.006604840513042516
0.0008878099023873374
0.0008307115900384616
0.010340599161094933
0.0007160032603953893
0.011042878715269638
-0.000519137416912737
0.006351027684585803
0.008722615973480796
0.001961870472270707
0.0027362558231515135
0.010200571040484182
0.0015568073477593767
0.0038321192146174316
0.007504940551913879
0.012008999861144046
0.0010962224342526115
0.00784149686066358
0.00034479937639177757
0.0020677501888886384
0.0012947946831598268
0.0010485918449135029
0.0011751862611806593
0.0053807756775770925
0.012272279793395652
0.002034006610347321
0.0005285724615821883
0.00174832268699798
0.0007364633643418919
0.011258008585852085
7.631733058348684e-05
0.0013937251292140856
0.0045419339873711525
-0.00023493550368759082
0.0014088588001206514
0.003459024901670869
0.0011747454480207742
0.0007973262964536758
0.0002606356218122995
0.0004857342208365792
0.001094674916970476
-2.1357134028519104e-05
0.0009282047050077754
0.00043482732467215644
0.006330153290780313
0.0003296973900189033
0.006129552781696834
0.006167175602061527
0.0022120715333059215
0.0032686897753068838
0.000493687155645906
0.0012676198920000155
0.0009438682493976091
0.0007768051356059964
0.005926980329465452
0.0017539396331727065
0.007523232731736713
0.010195313185608316
0.0006778561753023597
0.0015412026419603802
0.004335328906098017
0.001116751479656636
0.005887289812363576
0.008670422167586699
0.0018839922035320026
0.00014409837886680382
0.0019702925376970442
0.0006310138964929339
0.0021109690733734023
0.0011678713776661126
0.0028012877209859666
0.000943528429963567
0.0022270401727657006
0.004942281849707611
0.013144198476287705
0.0009531384415994295
0.008365881450738974
0.0006623822012100822
0.0008436997485644369
0.0005737423406563001
0.003933897685697576
0.0059851273292933875
0.0009315977677625894
-3.325975805741072e-05
0.001026068088753235
0.008396054935486457
0.0094735141195159
0.000172755509589367
0.0050065065444452215
0.006965914711707454
0.0005162834123505395
0.002022988436219202
-4.679728100526182e-05
0.0023135181171439847
0.0008438297962486118
0.0004020952426540041
0.0020433334060867693
0.0002221829512725799
0.010918766869730888
0.002351217410680098
0.0046331138753281115
0.0018384735088287452
0.01047590066492441
0.0022257802083148134
0.00408103727133439
0.005294600320582703
0.003014347153156931
0.0002733636808796913
0.005862174716903059
0.005712473342744683
1.6729661264773033e-05
0.0008060595824083253
0.0024491190357011556
0.0005852716067400754
0.010019397909846413
0.0008085820946318288
0.0012412600607322876
0.00015766237436046603
0.001799692589919566
0.0014611977605329411
0.0027699607008059963
0.010104919164854915
0.017491426841812374
0.0005148834013450958
0.009172359576110966
0.00737511844427441
0.0028259235460778398
0.002335383451112716
0.008944131361243375
0.0028432484083880456
0.001819128414333281
0.0012263556852030832
0.0017852806207076153
0.0016517760659945449
-0.0008175144147639348
0.0009951323845276453
0.007698921268458474
0.007038079787426645
0.00036080653855003175
0.001352336055725657
0.002195701816061837
0.0005929957603269898
0.006663438217835243
0.0018379416984673712
0.01283589514394549
0.0011193930603665618
0.0002549664690567647
0.0009005212825210516
5.2196502305511306e-05
0.003782088253539445
0.0025463939343961465
0.0008574327202670164
0.013109384879127996
0.0020236957095994264
0.0009467599639576287
0.001543666414149803
0.0021463794571978624
0.0037396448230275245
0.0007778799094076223
0.0017735518994850376
0.0024334107416794223
0.009163565020502642
0.01642018330775516
0.0015600126716893354
0.0016121375904306436
0.007639892806016476
0.003776715846702499
0.0054497293809119395
0.009787394619826683
0.00037723837228972315
0.0029796633919771326
0.006046568107689273
0.0010479701137636398
0.0010567795644198113
0.008802096818871879
0.00012028629512679835
0.0059879690019756
0.0015182493880414349
0.00345902058932245
0.0016883079701452278
0.0012795037945295253
0.00011479542445464876
0.013275578313465366
0.006853917535520273
0.008554101162027584
0.003953179115804413
0.0043792647667379335
0.006838705718511579
0.014350072928643732
0.005047854753679614
0.0009628798986439056
0.0015532879367594675
0.005829233302734468
0.002355553611648307
0.007184163690529304
0.001932588787681548
0.00873933786989267
0.0009082457194772955
0.0042173037939889305
0.011777964905385426
0.0005300921728189123
0.010830006792005655
0.0027994844325568767
0.001474205122133088
0.0015434460883391008
0.010981067713543425
0.0009035966568956903
0.012789424188916019
0.0009216242034526989
0.001154695472124841
0.000747276816311194
0.010336085201224192
0.0006132706093438296
0.0015539736188689996
0.002784691020886869
0.001240073436202162
0.0034953414879819304
0.0009553293572612286
0.000964126438637874
0.00044516253912893516
0.0037083873252694195
0.008275894989580288
0.0007187442132508527
0.0018856769863705098
0.003534317002919554
0.0005523717369722302
0.0004758566120186597
0.001155246966826516
0.0007987720855288742
0.00018638663538693697
0.005946888084339317
0.0069758707622733845
0.005729552461263774
-7.686440204308678e-05
0.0013565070693939809
0.0022545465365723587
0.002675805178630603
0.00162171299517681
0.009844633046986913
0.001809491457853618
0.00460644429737982
0.012729842214679004
0.0011423951128314881
0.0012761583904915478
0.0016210206704836553
0.0010668448944754665
0.000790103926935089
0.0016000983814566446
0.008116710314505102
0.006931684074379843
0.0038735307043957696
0.0017899502174916011
0.0014955502095104407
0.009049543596923953
0.0011094520129296085
0.00044163441751945883
0.010469453745025262
0.011236035608944426
0.007935611073258022
0.005951844830693718
0.01526702864133698
0.0059636748836042015
0.0013753595962234999
0.009479853637237478
0.00708898280086229
0.0023658267224152705
0.0012674763815720162
0.008396939170801527
0.008179712253753812
0.0011378566791328646
0.0038998812909342385
0.0010559128743465927
0.03112085500548792
0.020697631818174574
0.001090533537644463
0.0022779024927932203
0.0011389884141161715
0.005756775570120139
0.00022457771342092385
0.013628190369040921
0.013048736270855529
0.00236685815779609
0.0002084426830819851
0.005592314942420174
0.011431857146036478
0.002360987217736051
0.000507643964683616
0.002052907716829879
0.013466793957635084
0.0013833901119298401
0.0013527452014295588
0.004626816358693852
0.003424628190502489
0.0012053335233240341
0.001151048344472009
0.0005806432483347974
0.009956382268283576
0.006216661807542119
0.009840558447287233
0.00346805738213177
0.012392036775771545
0.0017376386425870445
0.0011314817012757258
0.004326142467158746
0.011103254737477869
0.00798571835946391
0.005812865239557881
0.021777472813687977
0.009352183836159503
0.0019096827162552038
0.014097864593567423
0.008639667548396818
0.0005049336208348174
0.002020038470766108
0.001884383958898001
0.012891086652284299
0.005626060300172638
0.004101245548748685
0.0006621210141890486
0.0012829679238709727
0.000890189841481322
0.000524607789228566
0.003068093978452276
0.010139631806285665
0.008866522582105336
0.009009105381552978
0.0003215230148425551
0.006468411136657715
0.001365848756959823
0.011224462251946331
0.0007137493796507732
0.0035580853473977437
0.0014170905485843658
0.001504744245415479
0.009124302591942267
0.009898055503886385
0.006285092582102621
0.01015005056247783
0.002730528833317717
0.00221501604056631
0.0007051951837450688
0.002189254494490399
0.0009678169075584898
0.003619544500419018
0.0011234917758020423
0.0031416040562158164
0.0008204740535614828
0.0015107296357676318
0.0006375995975195303
0.0011078685583940711
0.00112852085348265
0.003980213687452516
0.008497066996322624
0.0026569676777047713
0.0009231187896447102
0.0025884545091899927
-0.00020623560387312856
-0.0005920139159059261
0.0022181212097268895
0.002124458993581589
0.00043189793076281013
0.002087738532046535
0.004264467993295571
0.010603618544040707
0.0013167767416204634
0.00320105516057018
-0.00027321040182077297
0.000372795029292158
0.01475979884645192
0.005013399433979691
0.0013785183169860828
0.0026291043342544823
0.00826939900094974
0.0009160253379072621
0.0023421189915754197
0.0010538038344670051
0.004109272526983086
0.004649692674507825
0.000767980761949429
0.006344755391296001
0.001040767597723531
0.0046290607483755394
0.0030421975343388544
0.011437047821722857
0.001580075359672726
0.0016738896596502008
0.015624318073947013
0.006893192004927472
0.00927788883658995
0.001718855423554195
0.0007722090223281262
0.005656671263166442
0.0011398735063761264
0.00851955171017164
0.0037215808074961667
0.00018967400121354505
0.0029105944695386973
0.01206573818539529
0.00758222637081673
0.0021246040449186586
0.0025870457616571467
0.006273972047755462
0.0016759311156747585
0.0005801963114332298
0.02375623519028192
0.0009235789400966864
0.0028923814655141514
0.0009376484448278349
0.0014149434997112987
0.004672484277237475
0.009072289313630636
0.0015541475165774111
0.0057018268430647535
0.00134726784338662
0.009317113054826945
-7.287307024154902e-05
0.0010248130824964928
3.563852426926172e-05
0.0026859495799434483
0.0015186545116487183
0.0014611515751701578
0.0005996253003014179
-3.685209699464897e-05
0.0064055943069283635
-0.0009611217244735469
0.0021525327667103115
0.001874766046657575
0.010492292933205418
0.0014283935128322023
0.0031033393869668692
0.0017079382484387175
-0.00010777120925573116
0.0061814140876473795
0.0008845174302675859
0.0017328674864202109
0.0034045802934597985
0.0026182024673987846
0.004529023452124588
0.001993693779347876
0.0035501557473367087
0.0013343560949960016
0.0023406924492152966
0.0023852527420273315
0.0009819821764843449
0.01420766981127557
0.001714090528404964
0.0009819006699506607
-3.7787585230544035e-05
0.0039573782115585165
8.273008389605189e-05
0.016974370131451498
0.0020743541568312178
0.0010587088616688207
0.0007751817102118001
0.0009420164260327953
0.0018298870088382109
0.006835395448444009
0.0023298366563715657
-2.709504824373511e-05
0.0026940899568259702
0.009425272418174516
0.0027665299067184445
0.0062587914294082725
0.001717597051191754
0.004234458380913142
0.0010854209225296502
0.010948678215204495
0.0043491855150146
0.0019405471625575928
0.00516775296301011
0.0005366588670525658
0.00456379287992667
0.005215708207828678
0.012422298998262448
0.0011921449158262133
0.0009473089088658653
0.01188531233764718
0.0019417644788363242
0.00032858278106653996
0.0004907313857379953
0.00408222196814673
0.010445790284870471
-0.0008633109932869423
0.002983105570357656
0.002507757344465205
0.003693067105466678
0.0025248374982479245
0.0006743396732660848
0.001629403359691272
0.010092090223372253
0.008131019214031355
0.007725386105790265
0.0009993157589560033
0.00011942887957461186
0.001196828700453341
0.0007262165005844123
0.0018614550104537697
0.003088659174441054
0.0016973005534277107
0.0011429683615807207
0.00037240881891247946
0.0006826234665053847
0.006774764206204072
0.010041203345820456
0.0006049845651270108
0.009436363316501314
0.0008600711433829856
0.000677028253955101
0.002729961381741613
0.0015371181143306104
0.0010603919217650807
0.006508216168659218
0.01177450351910206
0.0003152453117979581
0.0016055949286774012
0.005762284379841845
0.00017842825172380866
0.0132950097272744
0.0030872990538178885
0.00048713894980275356
0.0018543567817029614
0.014018587469392553
0.0006830411552823335
0.0013410337540804673
0.005313755222704805
0.00039070814789544256
0.008251344604835224
0.0019491068256208993
0.0002904712877357302
0.009906735562045762
0.0008410991238761498
0.0010605349437630565
0.00140495229425174
-0.0008826272650559073
0.011314614751881277
0.006287026331142685
0.0038267601632789544
0.0017575302135220943
0.004602113891248305
0.006422993123451496
0.002257551826816299
0.0009568239624837346
0.005323586912158539
0.007425657382457918
-0.00115351468002453
0.0036561389351142596
0.012369630958901558
0.0013029633186057523
0.0006629830964027174
0.00011218335262118084
0.0011812493525465465
0.0004160632721213266
-2.1723517566467503e-05
0.0010745399723305047
0.014837716246356204
0.0018442549591630207
0.014408551627582906
0.01228451849386041
0.00854193583842251
0.001716260906044328
0.0018896741664792289
0.0009362959270274329
0.0015373820824469543
0.009425840057117585
0.0058356037440647855
0.013735524990448323
0.0012250635828631536
0.0016662332754296193
1.9621653250839856e-05
0.017769085598975352
0.013141516662528612
0.009745753697365377
0.009721281451524483
0.001707909014457407
0.0011198880005386974
0.003916717731914539
0.0014110188434269953
0.0050611775276259655
0.009721514970289918
0.0005110457738022045
0.006467031828518327
0.00199038997467583
0.002354111326907666
0.012383289919429583
0.006143750414238838
0.000725952609197883
0.0011606054710844652
0.019250821678101004
1.0394343060439432e-05
0.011954828885238604
0.0007360455620499678
0.002003378950381832
0.012267644915445365
0.0022327580857951813
0.007899954068484672
0.002107570878726275
0.007688235437894503
-0.00010913819052501041
0.007379650948947261
0.0005105122871843338
0.0009449059875011855
0.0010994424894065988
0.00725296283855053
0.005545649709538195
0.00914063902249586
0.0005551062941016254
0.004031940077834885
0.011233570465051626
0.007401218857781045
0.0004994660270185934
0.0019539263147197714
0.009439458866441222
0.002088749658766354
0.010631828077505194
0.006877979928712884
0.0016481406157789844
0.002259910861191507
0.021228039418539357
0.001829165404028649
0.001089133324799731
0.007839617673652865
0.0032231583295138
0.0012856902679625303
0.004288073177069236
0.001430387258550491
0.004785645414735544
0.0018634039212232238
0.003514087065013164
0.0006838047895887921
0.0007669211746509191
0.0019140791421880094
0.00017036053092952941
0.0042560352978117414
0.0022011270424834683
0.012488270584028335
0.0020234308265507264
0.0023639877367506706
0.008240625392097151
0.0022282933875848957
0.0008886411606532186
0.0064430916026449484
0.0010378117964001477
0.0023119937911064265
0.0008263606676424738
0.008877354639096061
0.002800869532717866
-4.585200866126405e-05
0.021245088176587986
0.004246136626095922
0.0022867081039671874
0.0010107864017684257
0.00651559486287434
0.006115079858505749
0.0026293497052027257
0.0005264316832284528
0.003612493979575178
0.0021878407685582335
4.3226631019441705e-05
0.0020983654422049147
0.0032610714065110596
0.0039956684337385685
0.0016597523136154286
0.007050966899954475
0.0040922985727280935
9.171468263652306e-05
0.0026226646049673104
0.0071371195522821
0.008364784458208221
0.006161422270866075
0.00482400153788445
0.0010986577767337399
0.010604243426256939
0.0007977450511781177
0.0024512155881881792
0.0007985772516200869
0.0016545169885002254
0.0025556429716344386
0.00028451512997601486
0.0097319192237843
0.011541856342747616
0.002252533307867038
0.0012216838578013396
0.006384337949861163
0.0011379588069426326
0.0014947145124841715
0.0026950045497055636
0.0013860945089552658
0.0014779863452774435
0.008992909773628672
0.002982793866578178
0.0017376872920530691
0.010429101321690334
0.004060322112182314
0.0007163031552510738
0.008570800039003955
0.0012669570902682007
9.464403352722143e-05
0.0020798071026885473
0.008123591467812242
0.0009033639825058582
0.0012255341316521789
0.003901405470747213
0.00171204407639095
0.0038867572032621972
0.0017202231027479394
0.006539863226734239
0.009732608319664795
0.001846635005066275
0.014163627261760174
0.011788196077259666
0.006835335895698043
0.010927635813651264
0.003713280269173945
0.0007829238065801081
0.0027313007108325424
0.00147924875387527
0.006902866018760658
0.0013593216083752245
0.00849799332872619
0.00937884607239314
0.0018456552627181962
0.00042732684132294545
0.008823637780870947
0.009130731672306887
0.002892067546374179
0.001635912238995338
0.00472493644780021
0.0030683480593227826
0.0016387109117235405
-0.000798521013114633
0.0062562133061280735
0.004399682014491226
0.00115830916820613
0.0028558791831873316
0.000655777138732048
0.0011612061106647188
0.0017587494281135552
0.0026131494519234452
0.00036635739966611123
0.003551817558263269
0.00298520341693165
0.0025080473328922682
0.00255546427194128
0.002012324727616855
0.0012879582697444326
0.004153016741742165
0.0006269760336844671
0.005353151230473062
0.0018057049208660522
0.002211837451056271
0.0006432482863058071
0.0003811794713428999
0.009138431874174407
0.014492700025159299
0.009168855320333076
0.002690962255708974
0.0056819077178997335
0.0013562669735852646
0.0008414250191853453
0.0016879037398746537
0.00022634123234657348
0.006136425324585987
0.007333507763874042